 Gaussian 16, Revision B.01,
 Gaussian 16:  EM64L-G16RevB.01 20-Dec-2017

 ------------------------------
 # wB97XD/cc-PVTZ Pop=Hirshfeld
 ------------------------------

 ------------
 cat-ra4PH-sd
 ------------
 Symbolic Z-matrix:
 Charge =  0 Multiplicity = 2

                         Standard orientation:
 ---------------------------------------------------------------------
 Center     Atomic      Atomic             Coordinates (Angstroms)
 Number     Number       Type             X           Y           Z
 ---------------------------------------------------------------------
      1          6           0        4.489427   -0.451001   -0.063469
      2          6           0        3.731270    0.696117   -0.221596
      3          6           0        2.339629    0.686054   -0.103217
      4          6           0        1.737140   -0.525776    0.206052
      5          6           0        2.470331   -1.697179    0.369241
      6          6           0        3.846293   -1.649003    0.227834
      7          1           0        5.568110   -0.436368   -0.160660
      8          1           0        1.949936   -2.616425    0.607833
      9          8           0        4.630813   -2.747343    0.371605
     10          1           0        4.084148   -3.510891    0.565590
     11          8           0        4.298419    1.897479   -0.509955
     12          1           0        5.246902    1.792606   -0.602964
     13          8           0        0.388865   -0.649204    0.342567
     14          8           0       -0.761443    2.742337   -0.458789
     15          1           0       -0.455213    3.303906    0.256718
     16          6           0       -1.817977    0.196704    0.428490
     17          6           0       -2.242428   -0.770729   -0.468910
     18          6           0       -2.754138    0.913731    1.216915
     19          6           0       -3.593828   -1.026158   -0.591025
     20          1           0       -1.530878   -1.330254   -1.060728
     21          6           0       -4.091133    0.684093    1.117207
     22          1           0       -2.385815    1.659856    1.910617
     23          6           0       -4.588774   -0.303676    0.199802
     24          1           0       -4.813608    1.224920    1.714258
     25          8           0       -4.068216   -1.938296   -1.428019
     26          1           0       -5.036376   -1.909859   -1.314476
     27          6           0       -0.360281    0.543431    0.527781
     28          1           0       -0.149281    0.947653    1.528095
     29          6           0        1.527798    1.929111   -0.335761
     30          1           0        1.636129    2.611768    0.517908
     31          1           0        1.896296    2.468697   -1.208885
     32          6           0        0.056044    1.596993   -0.518227
     33          1           0       -0.112671    1.155358   -1.503327
     34          8           0       -5.787679   -0.592128    0.033004
 ---------------------------------------------------------------------

 SCF Done:  E(UwB97XD) =  -1030.76709644     A.U. after   20 cycles

 The electronic state is 2-A.
 Alpha  occ. eigenvalues --  -19.30101 -19.29697 -19.29520 -19.29034 -19.26822
 Alpha  occ. eigenvalues --  -19.24548 -10.37283 -10.36585 -10.36464 -10.36366
 Alpha  occ. eigenvalues --  -10.36343 -10.36274 -10.35644 -10.32902 -10.30819
 Alpha  occ. eigenvalues --  -10.30399 -10.30381 -10.29841 -10.29578 -10.28553
 Alpha  occ. eigenvalues --  -10.28498  -1.20077  -1.19188  -1.18116  -1.17645
 Alpha  occ. eigenvalues --   -1.14777  -1.13579  -0.97854  -0.96309  -0.91392
 Alpha  occ. eigenvalues --   -0.88642  -0.86562  -0.84502  -0.82881  -0.77622
 Alpha  occ. eigenvalues --   -0.75164  -0.73396  -0.72310  -0.71594  -0.70075
 Alpha  occ. eigenvalues --   -0.67016  -0.64792  -0.61843  -0.61503  -0.59960
 Alpha  occ. eigenvalues --   -0.59145  -0.58598  -0.58001  -0.57498  -0.55406
 Alpha  occ. eigenvalues --   -0.54973  -0.54185  -0.53405  -0.53027  -0.52164
 Alpha  occ. eigenvalues --   -0.50998  -0.50235  -0.49624  -0.49234  -0.48508
 Alpha  occ. eigenvalues --   -0.47835  -0.47498  -0.46729  -0.46164  -0.45751
 Alpha  occ. eigenvalues --   -0.44890  -0.43845  -0.43255  -0.41642  -0.38882
 Alpha  occ. eigenvalues --   -0.36832  -0.35839  -0.33897  -0.30548  -0.29950
 Alpha  occ. eigenvalues --   -0.28563
 Alpha virt. eigenvalues --    0.05121   0.05510   0.06873   0.07114   0.09731
 Alpha virt. eigenvalues --    0.10427   0.10872   0.13193   0.13736   0.13983
 Alpha virt. eigenvalues --    0.14887   0.15370   0.16653   0.17052   0.17949

  Beta  occ. eigenvalues --  -19.29860 -19.29685 -19.29520 -19.29033 -19.26821
  Beta  occ. eigenvalues --  -19.23751 -10.36949 -10.36614 -10.36464 -10.36385
  Beta  occ. eigenvalues --  -10.36366 -10.36274 -10.35606 -10.32516 -10.30896
  Beta  occ. eigenvalues --  -10.30378 -10.30201 -10.30017 -10.29578 -10.28553
  Beta  occ. eigenvalues --  -10.28497  -1.19390  -1.19152  -1.18115  -1.17645
  Beta  occ. eigenvalues --   -1.14765  -1.11973  -0.97349  -0.96123  -0.91255
  Beta  occ. eigenvalues --   -0.88330  -0.86255  -0.84325  -0.82299  -0.77270
  Beta  occ. eigenvalues --   -0.75101  -0.73334  -0.71938  -0.71179  -0.70041
  Beta  occ. eigenvalues --   -0.66915  -0.64541  -0.61656  -0.61365  -0.59947
  Beta  occ. eigenvalues --   -0.59020  -0.58571  -0.57848  -0.57225  -0.55168
  Beta  occ. eigenvalues --   -0.54130  -0.53352  -0.53070  -0.52378  -0.51767
  Beta  occ. eigenvalues --   -0.50901  -0.50099  -0.49606  -0.48981  -0.48316
  Beta  occ. eigenvalues --   -0.47407  -0.46614  -0.46096  -0.45701  -0.45037
  Beta  occ. eigenvalues --   -0.44614  -0.43425  -0.42121  -0.40000  -0.38842
  Beta  occ. eigenvalues --   -0.36601  -0.34878  -0.32841  -0.30527  -0.29946
  Beta virt. eigenvalues --   -0.06480   0.06528   0.07088   0.07267   0.08762
  Beta virt. eigenvalues --    0.09795   0.10487   0.10879   0.13241   0.13752
  Beta virt. eigenvalues --    0.14052   0.15039   0.15403   0.16658   0.17105

 Mulliken charges and spin densities:
               1          2
     1  C   -0.282247  -0.000103
     2  C    0.262279   0.000029
     3  C   -0.123906  -0.000368
     4  C    0.163175   0.000124
     5  C   -0.293126   0.000152
     6  C    0.253447   0.000077
     7  H    0.100429  -0.000001
     8  H    0.103297  -0.000025
     9  O   -0.269629   0.000017
    10  H    0.205174  -0.000001
    11  O   -0.262527   0.000009
    12  H    0.201198   0.000016
    13  O   -0.265588   0.002832
    14  O   -0.315626   0.000033
    15  H    0.186233   0.000378
    16  C    0.121223   0.287462
    17  C   -0.223870  -0.103978
    18  C   -0.138564  -0.045545
    19  C    0.187455   0.253983
    20  H    0.138980   0.002181
    21  C   -0.160931   0.170356
    22  H    0.110836   0.001462
    23  C    0.174396   0.004496
    24  H    0.130214  -0.004244
    25  O   -0.247167   0.085591
    26  H    0.230528  -0.001848
    27  C    0.056722  -0.011885
    28  H    0.113167   0.003732
    29  C   -0.211209   0.002661
    30  H    0.100770  -0.000066
    31  H    0.120033   0.000796
    32  C    0.066549   0.013669
    33  H    0.121286  -0.000396
    34  O   -0.353000   0.338404
 Sum of Mulliken charges =  -0.00000   1.00000

 Dipole moment (field-independent basis, Debye):
    X=              4.4134    Y=              0.9129    Z=              1.4396  Tot=              4.7311
 Quadrupole moment (field-independent basis, Debye-Ang):
   XX=           -132.1960   YY=           -109.9359   ZZ=           -118.8481
   XY=              0.8475   XZ=             -3.1331   YZ=              3.9324

 Normal termination of Gaussian 16 at Thu May  2 02:59:00 2019.
